10
Atoms. Timestep: 0
N 146.8314 150.26363 141.4906
C 146.66338 151.41309 141.54749
N 147.00455 152.0503 142.19507
C 147.35889 151.21071 142.03792
C 147.09953 150.28844 141.76921
C 146.98575 149.18883 141.81622
C 146.86372 153.33861 142.32101
C 146.72841 154.40411 141.8486
C 146.69884 155.19817 141.93242
C 146.82286 155.97566 141.19508
10
Atoms. Timestep: 1
N 173.19415 140.48782 176.20117
C 172.59856 141.27217 175.80371
N 171.73828 141.41959 175.4923
C 171.90091 140.69395 176.08844
C 172.95619 140.3593 176.26294
C 173.84184 139.78746 176.30591
C 170.87282 142.2212 174.98572
C 170.28366 142.92719 175.04538
C 169.88576 143.45045 174.86137
C 169.30516 143.8535 175.465
10
Atoms. Timestep: 2
N 138.98886 175.40724 181.16602
C 137.77483 175.09067 181.06508
N 137.01291 175.19456 180.42252
C 138.00894 175.38142 180.34244
C 139.01271 175.56345 180.92355
C 140.05202 175.90071 181.20856
C 135.55342 174.82057 180.12859
C 134.6032 174.29057 180.1847
C 133.85056 174.13326 180.12535
C 133.42957 173.61682 180.20776
10
Atoms. Timestep: 3
N 145.4271 148.6798 155.42467
C 144.21133 148.54245 155.74548
N 143.23695 148.70229 155.75479
C 143.93074 149.05553 154.89331
C 145.30284 148.86566 155.26555
C 146.68597 148.70665 155.65376
C 141.70886 148.56186 155.99524
C 140.50177 148.60178 155.59741
C 139.70683 148.58783 155.76996
C 138.71663 148.95103 154.60661
10
Atoms. Timestep: 4
N 169.7472 144.52318 151.02663
C 168.63991 144.42392 150.60748
N 167.85812 143.84702 150.5684
C 168.9029 143.53764 150.45717
C 169.7667 144.2574 151.07004
C 170.5671 144.79008 151.91966
C 166.50931 143.55888 150.03539
C 165.8646 143.29196 148.9926
C 165.2016 143.20053 148.71552
C 165.23418 142.66158 147.28197
10
Atoms. Timestep: 5
N 169.23697 178.63985 162.57608
C 170.10675 178.47534 163.29875
N 170.47624 178.45624 164.11967
C 169.46689 178.30087 164.0696
C 169.14862 178.66144 162.88083
C 168.73175 179.11601 161.64616
C 171.38156 178.2001 165.02646
C 171.78127 177.64572 166.04114
C 172.34926 177.55481 166.62862
C 172.12234 176.74313 167.95343
10
Atoms. Timestep: 6
N 153.19254 168.51192 171.13542
C 153.99883 167.93028 171.69885
N 154.90051 167.58316 171.87244
C 154.87875 168.37114 171.2493
C 153.52635 168.61325 171.0694
C 152.11227 168.7665 170.767
C 155.92117 166.88219 172.43045
C 157.1064 166.8024 172.76443
C 157.75797 166.50447 173.14929
C 159.3266 167.07199 173.14476
10
Atoms. Timestep: 7
N 145.37814 177.07742 182.53662
C 145.05617 177.14165 183.6107
N 144.285 177.22882 184.20119
C 144.25174 177.70166 183.36127
C 145.105 177.2382 182.55684
C 145.728 176.5996 181.58981
C 143.73463 177.30237 185.38643
C 143.44542 177.97675 186.31285
C 143.21823 178.12625 187.05914
C 142.87292 179.43747 187.66144
10
Atoms. Timestep: 8
N 140.3421 169.82181 147.78526
C 140.28513 170.72935 148.38481
N 140.71826 171.3776 149.0326
C 140.82085 170.23238 148.98444
C 140.5888 169.8252 148.02528
C 140.55586 169.48169 147.0093
C 140.69951 172.3648 149.77425
C 140.4348 172.5075 150.62712
C 140.45808 173.09775 151.11584
C 140.20781 172.41267 152.2291
10
Atoms. Timestep: 9
N 168.38028 168.7841 154.31354
C 168.4054 168.27313 155.28233
N 168.81697 168.41025 156.18076
C 169.29553 168.65521 155.43181
C 168.68591 168.98601 154.4905
C 168.09668 169.59592 153.59496
C 168.90948 167.8314 157.32103
C 169.31004 166.92926 157.94719
C 169.44202 166.63817 158.63245
C 170.37958 165.66911 158.8881
10
Atoms. Timestep: 10
N 156.99481 180.04654 176.75719
C 157.26305 181.07439 177.15488
N 157.66127 181.90479 177.21281
C 157.58263 181.37985 176.22696
C 157.15947 180.2355 176.59203
C 156.76212 178.99283 176.98135
C 157.98016 183.10979 177.53128
C 158.21925 184.18735 177.11449
C 158.45886 184.94492 177.33545
C 158.74269 185.98586 176.05336
10
Atoms. Timestep: 11
N 159.95917 160.79375 145.0423
C 159.83992 160.10786 145.85654
N 160.38083 159.5766 146.18079
C 160.71043 160.287 145.81306
C 160.30725 160.81004 145.05623
C 160.12811 161.23701 144.0315
C 160.32526 158.72067 147.07736
C 160.1442 158.42639 148.19301
C 160.15779 158.03557 148.78671
C 160.19795 158.26141 150.0101
10
Atoms. Timestep: 12
N 151.38213 160.54158 153.30154
C 152.13405 161.43935 153.1923
N 153.03088 161.54747 153.49117
C 152.51427 160.81491 153.41438
C 151.6259 160.3865 153.46461
C 150.85144 159.62634 153.72491
C 153.94833 162.46225 153.36993
C 154.39363 163.43056 152.84502
C 154.94858 164.03839 152.80836
C 155.14478 164.7918 152.07953
10
Atoms. Timestep: 13
N 179.2908 183.98393 157.407
C 179.98537 183.06506 157.03746
N 180.38113 182.36945 156.36452
C 179.49965 183.03192 156.09906
C 179.25998 183.9509 157.14085
C 179.0056 184.84132 158.09822
C 181.1026 181.2109 155.7555
C 181.2634 180.44402 155.00938
C 181.72348 179.8797 154.72807
C 181.28046 179.45102 153.5926
10
Atoms. Timestep: 14
N 143.92651 165.00348 149.1183
C 144.72899 164.78885 149.9425
N 144.84229 165.16422 150.80635
C 144.07297 165.18408 150.27689
C 143.77362 165.23264 149.33667
C 143.21962 165.56648 148.45206
C 145.6532 164.9435 151.79837
C 146.36423 164.26282 152.4058
C 146.89513 164.16728 153.0095
C 147.2728 163.30725 153.41197
10
Atoms. Timestep: 15
N 180.98952 171.83643 144.94638
C 181.02518 173.07518 145.15958
N 180.79785 174.09529 144.77477
C 180.92105 173.16931 144.21913
C 180.95116 172.00676 144.6829
C 180.75911 170.83214 144.93651
C 180.75072 175.54018 144.85124
C 181.11145 176.45984 144.84203
C 181.18942 177.32828 144.95467
C 181.82164 177.83618 144.55914
10
Atoms. Timestep: 16
N 170.82616 149.49496 161.86314
C 170.93596 149.40202 160.76163
N 171.2825 149.0668 160.05202
C 171.73311 148.62975 160.8673
C 171.08923 149.31082 161.86827
C 170.38605 149.96384 162.90872
C 171.45491 148.81787 158.70592
C 172.04483 148.25754 157.74136
C 172.23277 148.16637 157.05687
C 173.4034 147.12971 156.47948
10
Atoms. Timestep: 17
N 148.50624 180.15788 149.61314
C 149.14034 180.236 148.78758
N 149.87733 180.72693 148.4783
C 149.30464 181.2702 148.95499
C 148.6823 180.50711 149.69507
C 148.18047 179.7513 150.61378
C 150.6294 180.89532 147.49025
C 150.84265 181.44495 146.46205
C 151.29955 181.62854 145.94928
C 151.14793 182.81546 145.00465
10
Atoms. Timestep: 18
N 179.91115 166.78917 145.54526
C 179.96599 166.17381 144.71832
N 180.4345 165.88239 143.91052
C 180.92848 166.26317 144.86073
C 180.24384 166.84119 145.49864
C 179.58359 167.49933 145.91745
C 180.56856 165.11983 142.87065
C 181.01863 164.41924 142.73769
C 181.17891 164.05191 142.25848
C 182.19547 163.47206 142.89255
10
Atoms. Timestep: 19
N 151.98256 159.31708 174.83568
C 150.9905 159.01978 175.07637
N 150.17485 158.90569 174.93427
C 150.75945 158.84372 174.07295
C 151.88335 159.32536 174.62398
C 152.99188 159.91176 175.15662
C 148.91542 158.49709 175.05109
C 147.96425 157.8281 174.5685
C 147.32552 157.64372 174.68268
C 146.58646 156.751 173.41713
